 Gaussian 09, Revision D.01,
 Gaussian 09:  AM64L-G09RevD.01 24-Apr-2013

 ----------------------------------------------------------------------
 # b3lyp/def2tzvp empiricaldispersion=gd3 pop=nbo6read pop=saveNBOs int
 =(grid=ultrafine) scf=(tight,maxcycle=300)
 ----------------------------------------------------------------------

 ---------------------------------------------
 Energy Optimisation and Frequency calculation
 ---------------------------------------------
 Symbolic Z-matrix:
 Charge =  0 Multiplicity = 1

                         Standard orientation:
 ---------------------------------------------------------------------
 Center     Atomic      Atomic             Coordinates (Angstroms)
 Number     Number       Type             X           Y           Z
 ---------------------------------------------------------------------
      1          6           0       -0.076173    0.215965    0.557490
      2          6           0        1.316824    0.237217    0.585162
      3          6           0        2.072250   -0.803914    0.058483
      4          6           0        1.430544   -1.892780   -0.514055
      5          6           0        0.041696   -1.939591   -0.540051
      6          6           0       -0.722700   -0.900271   -0.006618
      7          1           0        1.813059    1.109027    0.991560
      8          1           0        2.004627   -2.708478   -0.935885
      9          1           0       -0.451255   -2.798005   -0.976391
     10          7           0       -2.153211   -0.932708   -0.028707
     11          6           0       -2.762044   -1.580272   -1.179023
     12          1           0       -2.694251   -2.679799   -1.158247
     13          1           0       -3.822270   -1.319750   -1.211302
     14          1           0       -2.292052   -1.225723   -2.096094
     15          6           0       -2.749285   -1.390818    1.222793
     16          1           0       -2.625752   -2.476154    1.367230
     17          1           0       -3.817838   -1.164090    1.227147
     18          1           0       -2.287689   -0.889303    2.071433
     19          6           0       -0.857913    1.410953    1.055467
     20          1           0       -0.206430    2.034415    1.668988
     21          1           0       -1.689009    1.098880    1.686270
     22          6           0       -1.420839    2.259466   -0.089839
     23          1           0       -2.185180    2.958855    0.276326
     24          1           0       -1.936554    1.631029   -0.822114
     25          6           0       -0.402709    3.104185   -0.807478
     26          1           0       -0.783043    3.609238   -1.722430
     27          8           0        0.734905    3.273887   -0.450250
     28          6           0        3.610247   -0.733204    0.092647
     29          7           0        4.755355   -0.680557    0.118084
 ---------------------------------------------------------------------

 SCF Done:  E(RB3LYP) =  -650.668022153     A.U. after   15 cycles

 The electronic state is 1-A.
 Alpha  occ. eigenvalues --  -19.13655 -14.33999 -14.30963 -10.27148 -10.23048
 Alpha  occ. eigenvalues --  -10.22978 -10.21218 -10.21120 -10.21111 -10.20242
 Alpha  occ. eigenvalues --  -10.20151 -10.19684 -10.19677 -10.19479 -10.19246
 Alpha  occ. eigenvalues --   -1.06338  -0.95939  -0.90812  -0.87819  -0.82072
 Alpha  occ. eigenvalues --   -0.77527  -0.76643  -0.73173  -0.69324  -0.67522
 Alpha  occ. eigenvalues --   -0.62306  -0.60897  -0.57566  -0.54448  -0.52132
 Alpha  occ. eigenvalues --   -0.51723  -0.49378  -0.48676  -0.47777  -0.46014
 Alpha  occ. eigenvalues --   -0.45626  -0.44967  -0.43464  -0.41915  -0.41690
 Alpha  occ. eigenvalues --   -0.41328  -0.39935  -0.39336  -0.39006  -0.38111
 Alpha  occ. eigenvalues --   -0.37315  -0.36256  -0.35722  -0.34741  -0.33878
 Alpha  occ. eigenvalues --   -0.28338  -0.27983  -0.26564  -0.23664
 Alpha virt. eigenvalues --   -0.04932  -0.04060  -0.03301   0.01292   0.03496
 Alpha virt. eigenvalues --    0.03652   0.04354   0.04730   0.05752   0.06648
 Alpha virt. eigenvalues --    0.06980   0.07294   0.08118   0.08722   0.09494

 Mulliken charges:
               1
     1  C   -0.057840
     2  C   -0.219020
     3  C    0.234631
     4  C   -0.169217
     5  C   -0.190260
     6  C    0.202630
     7  H    0.134215
     8  H    0.128084
     9  H    0.109003
    10  N   -0.168081
    11  C   -0.290235
    12  H    0.103731
    13  H    0.126019
    14  H    0.134258
    15  C   -0.263848
    16  H    0.106313
    17  H    0.120086
    18  H    0.127701
    19  C   -0.108690
    20  H    0.118747
    21  H    0.089367
    22  C   -0.180978
    23  H    0.114669
    24  H    0.127654
    25  C    0.098309
    26  H    0.075577
    27  O   -0.272972
    28  C   -0.265021
    29  N    0.035166
 Sum of Mulliken charges =   0.00000

 Dipole moment (field-independent basis, Debye):
    X=             -8.1446    Y=             -1.1827    Z=             -0.3123  Tot=              8.2359
 Quadrupole moment (field-independent basis, Debye-Ang):
   XX=           -112.7271   YY=            -87.5763   ZZ=            -86.8078
   XY=             -2.4638   XZ=             -0.0165   YZ=              2.6197

 Summary of Natural Population Analysis:

                                     Natural Population
             Natural    ---------------------------------------------
  Atom No    Charge        Core      Valence    Rydberg      Total
 --------------------------------------------------------------------
    C  1   -0.02617      1.99999     4.00652    0.01967     6.02617
    C  2   -0.15386      1.99999     4.13684    0.01704     6.15386
    C  3   -0.13472      1.99999     4.11609    0.01865     6.13472
    C  4   -0.16823      1.99999     4.15159    0.01665     6.16823
    C  5   -0.23825      1.99999     4.22124    0.01702     6.23825
    C  6    0.16528      1.99999     3.81466    0.02007     5.83472
    H  7    0.23526      0.00000     0.76319    0.00155     0.76474
    H  8    0.22427      0.00000     0.77439    0.00133     0.77573
    H  9    0.21607      0.00000     0.78183    0.00209     0.78393
    N 10   -0.44080      1.99999     5.41680    0.02401     7.44080
    C 11   -0.39840      1.99999     4.38634    0.01207     6.39840
    H 12    0.16273      0.00000     0.83326    0.00401     0.83727
    H 13    0.19948      0.00000     0.79884    0.00168     0.80052
    H 14    0.20435      0.00000     0.79425    0.00140     0.79565
    C 15   -0.39210      1.99999     4.38044    0.01167     6.39210
    H 16    0.16874      0.00000     0.82712    0.00414     0.83126
    H 17    0.19510      0.00000     0.80313    0.00177     0.80490
    H 18    0.20105      0.00000     0.79747    0.00148     0.79895
    C 19   -0.40927      1.99999     4.39373    0.01556     6.40927
    H 20    0.22454      0.00000     0.77349    0.00198     0.77546
    H 21    0.21545      0.00000     0.78264    0.00192     0.78455
    C 22   -0.49400      1.99999     4.48132    0.01270     6.49400
    H 23    0.23202      0.00000     0.76651    0.00147     0.76798
    H 24    0.23515      0.00000     0.76311    0.00174     0.76485
    C 25    0.43748      1.99999     3.53019    0.03234     5.56252
    H 26    0.10021      0.00000     0.89547    0.00432     0.89979
    O 27   -0.51561      1.99999     6.49060    0.02501     8.51561
    C 28    0.27872      1.99998     3.68748    0.03382     5.72128
    N 29   -0.32447      1.99999     5.29817    0.02630     7.32447
 ====================================================================
 * Total *  0.00000     29.99983    77.66670    0.33348   108.00000

 Normal termination of Gaussian 09 at Thu Oct 28 14:37:31 2021.
