 Gaussian 09, Revision D.01,
 Gaussian 09:  AM64L-G09RevD.01 24-Apr-2013

 ----------------------------------------------------------------------
 # b3lyp/def2tzvp empiricaldispersion=gd3 pop=nbo6read pop=saveNBOs int
 =(grid=ultrafine) scf=(tight,maxcycle=300)
 ----------------------------------------------------------------------

 ---------------------------------------------
 Energy Optimisation and Frequency calculation
 ---------------------------------------------
 Symbolic Z-matrix:
 Charge =  0 Multiplicity = 1

                         Standard orientation:
 ---------------------------------------------------------------------
 Center     Atomic      Atomic             Coordinates (Angstroms)
 Number     Number       Type             X           Y           Z
 ---------------------------------------------------------------------
      1          6           0       -0.121827   -0.343768    0.296895
      2          6           0       -1.331942   -1.034437    0.300793
      3          6           0       -2.538408   -0.404692    0.014432
      4          6           0       -2.543698    0.949372   -0.285270
      5          6           0       -1.350631    1.663228   -0.275307
      6          6           0       -0.137528    1.037998    0.019270
      7          1           0       -1.323852   -2.097137    0.515078
      8          1           0       -3.472013    1.456442   -0.517153
      9          1           0       -1.367652    2.722281   -0.494346
     10          7           0        1.095477    1.758404    0.028356
     11          6           0        1.196619    2.876873   -0.894496
     12          1           0        0.627853    3.765904   -0.578360
     13          1           0        2.244655    3.172697   -0.975993
     14          1           0        0.845645    2.577465   -1.881808
     15          6           0        1.563975    2.121460    1.363846
     16          1           0        0.983338    2.954891    1.790141
     17          1           0        2.612822    2.421772    1.317035
     18          1           0        1.479900    1.275892    2.042786
     19          6           0        1.168796   -1.099387    0.501518
     20          1           0        0.952463   -2.087832    0.909903
     21          1           0        1.816980   -0.613185    1.229029
     22          6           0        1.950479   -1.257948   -0.803909
     23          1           0        2.166192   -0.274679   -1.238198
     24          1           0        1.361711   -1.789516   -1.561535
     25          6           0        3.260889   -1.976752   -0.655517
     26          1           0        3.813888   -2.134264   -1.607849
     27          8           0        3.723846   -2.364755    0.386993
     28          6           0       -3.850857   -1.210334    0.018588
     29          7           0       -4.828035   -1.810171    0.021683
 ---------------------------------------------------------------------

 SCF Done:  E(RB3LYP) =  -650.668752850     A.U. after   15 cycles

 The electronic state is 1-A.
 Alpha  occ. eigenvalues --  -19.13667 -14.34314 -14.31566 -10.27178 -10.23619
 Alpha  occ. eigenvalues --  -10.23430 -10.21722 -10.21299 -10.21262 -10.20758
 Alpha  occ. eigenvalues --  -10.20609 -10.20421 -10.19913 -10.19582 -10.19241
 Alpha  occ. eigenvalues --   -1.06309  -0.96238  -0.91414  -0.88311  -0.82332
 Alpha  occ. eigenvalues --   -0.78010  -0.76970  -0.73329  -0.69592  -0.67803
 Alpha  occ. eigenvalues --   -0.62617  -0.61272  -0.57642  -0.55188  -0.52447
 Alpha  occ. eigenvalues --   -0.51771  -0.49892  -0.48513  -0.47540  -0.46639
 Alpha  occ. eigenvalues --   -0.46018  -0.45388  -0.43919  -0.42289  -0.41614
 Alpha  occ. eigenvalues --   -0.41201  -0.40333  -0.39550  -0.38967  -0.38606
 Alpha  occ. eigenvalues --   -0.37484  -0.36697  -0.35979  -0.35246  -0.34499
 Alpha  occ. eigenvalues --   -0.29014  -0.28401  -0.26667  -0.23834
 Alpha virt. eigenvalues --   -0.05487  -0.03908  -0.03792   0.01343   0.03050
 Alpha virt. eigenvalues --    0.03291   0.03795   0.04290   0.05609   0.06663
 Alpha virt. eigenvalues --    0.06906   0.07097   0.07950   0.08248   0.09046

 Mulliken charges:
               1
     1  C    0.062012
     2  C   -0.255037
     3  C    0.237165
     4  C   -0.175475
     5  C   -0.190465
     6  C    0.211025
     7  H    0.125374
     8  H    0.130366
     9  H    0.113240
    10  N   -0.168260
    11  C   -0.294408
    12  H    0.105128
    13  H    0.128743
    14  H    0.136223
    15  C   -0.262944
    16  H    0.105695
    17  H    0.123241
    18  H    0.132341
    19  C   -0.224394
    20  H    0.114989
    21  H    0.101194
    22  C   -0.170290
    23  H    0.128613
    24  H    0.120092
    25  C    0.089552
    26  H    0.076304
    27  O   -0.268690
    28  C   -0.268545
    29  N    0.037213
 Sum of Mulliken charges =   0.00000

 Dipole moment (field-independent basis, Debye):
    X=              3.3414    Y=              4.5299    Z=             -1.6845  Tot=              5.8756
 Quadrupole moment (field-independent basis, Debye-Ang):
   XX=           -122.3083   YY=            -89.5086   ZZ=            -88.4395
   XY=             -4.6750   XZ=             -4.8897   YZ=              2.8248

 Summary of Natural Population Analysis:

                                     Natural Population
             Natural    ---------------------------------------------
  Atom No    Charge        Core      Valence    Rydberg      Total
 --------------------------------------------------------------------
    C  1   -0.02182      1.99999     4.00290    0.01893     6.02182
    C  2   -0.16637      1.99999     4.14973    0.01665     6.16637
    C  3   -0.13662      1.99999     4.11783    0.01880     6.13662
    C  4   -0.16831      1.99999     4.15136    0.01697     6.16831
    C  5   -0.23634      1.99999     4.21919    0.01716     6.23634
    C  6    0.16870      1.99999     3.81126    0.02006     5.83130
    H  7    0.22123      0.00000     0.77719    0.00158     0.77877
    H  8    0.22566      0.00000     0.77302    0.00133     0.77434
    H  9    0.21725      0.00000     0.78068    0.00207     0.78275
    N 10   -0.43485      1.99999     5.41036    0.02451     7.43485
    C 11   -0.39997      1.99999     4.38797    0.01201     6.39997
    H 12    0.16408      0.00000     0.83213    0.00378     0.83592
    H 13    0.20090      0.00000     0.79742    0.00168     0.79910
    H 14    0.20442      0.00000     0.79414    0.00144     0.79558
    C 15   -0.39315      1.99999     4.38147    0.01170     6.39315
    H 16    0.16928      0.00000     0.82684    0.00388     0.83072
    H 17    0.19697      0.00000     0.80129    0.00174     0.80303
    H 18    0.20365      0.00000     0.79490    0.00145     0.79635
    C 19   -0.40737      1.99999     4.39128    0.01610     6.40737
    H 20    0.21774      0.00000     0.78035    0.00191     0.78226
    H 21    0.22365      0.00000     0.77400    0.00235     0.77635
    C 22   -0.49402      1.99999     4.48228    0.01175     6.49402
    H 23    0.24130      0.00000     0.75682    0.00188     0.75870
    H 24    0.22387      0.00000     0.77451    0.00162     0.77613
    C 25    0.43907      1.99999     3.52891    0.03203     5.56093
    H 26    0.10025      0.00000     0.89553    0.00421     0.89975
    O 27   -0.51405      1.99999     6.48911    0.02494     8.51405
    C 28    0.27894      1.99998     3.68725    0.03382     5.72106
    N 29   -0.32407      1.99999     5.29698    0.02710     7.32407
 ====================================================================
 * Total *  0.00000     29.99983    77.66670    0.33347   108.00000

 Normal termination of Gaussian 09 at Thu Oct 28 14:37:31 2021.
