 Gaussian 09, Revision D.01,
 Gaussian 09:  AM64L-G09RevD.01 24-Apr-2013

 ----------------------------------------------------------------------
 # b3lyp/def2tzvp empiricaldispersion=gd3 pop=nbo6read pop=saveNBOs int
 =(grid=ultrafine) scf=(tight,maxcycle=300)
 ----------------------------------------------------------------------

 ---------------------------------------------
 Energy Optimisation and Frequency calculation
 ---------------------------------------------
 Symbolic Z-matrix:
 Charge =  0 Multiplicity = 1

                         Standard orientation:
 ---------------------------------------------------------------------
 Center     Atomic      Atomic             Coordinates (Angstroms)
 Number     Number       Type             X           Y           Z
 ---------------------------------------------------------------------
      1          6           0       -0.333386   -0.590147    0.501484
      2          6           0       -1.689566   -0.891551    0.387392
      3          6           0       -2.606292    0.038351   -0.089415
      4          6           0       -2.166493    1.299363   -0.467183
      5          6           0       -0.821292    1.625981   -0.345304
      6          6           0        0.098954    0.698860    0.144964
      7          1           0       -2.029852   -1.884637    0.657780
      8          1           0       -2.866294    2.031872   -0.849486
      9          1           0       -0.484725    2.613513   -0.631046
     10          7           0        1.484831    1.011391    0.281670
     11          6           0        2.059917    1.872082   -0.740633
     12          1           0        1.784110    2.930276   -0.624391
     13          1           0        3.146820    1.794155   -0.692734
     14          1           0        1.748844    1.527992   -1.725170
     15          6           0        1.875942    1.413234    1.628612
     16          1           0        1.451994    0.734318    2.366655
     17          1           0        2.964126    1.384911    1.716933
     18          1           0        1.535251    2.431346    1.870843
     19          6           0        0.643325   -1.664054    0.917516
     20          1           0        1.233119   -1.354491    1.785126
     21          1           0        0.074799   -2.538286    1.237796
     22          6           0        1.607557   -2.083778   -0.209180
     23          1           0        2.001025   -3.081690    0.024176
     24          1           0        1.098393   -2.152837   -1.171477
     25          6           0        2.827650   -1.208453   -0.360609
     26          1           0        3.316919   -0.938325    0.599588
     27          8           0        3.329430   -0.908937   -1.416078
     28          6           0       -4.094330   -0.338560   -0.213023
     29          7           0       -5.202243   -0.619188   -0.305055
 ---------------------------------------------------------------------

 SCF Done:  E(RB3LYP) =  -650.669600603     A.U. after   15 cycles

 The electronic state is 1-A.
 Alpha  occ. eigenvalues --  -19.12098 -14.34685 -14.31787 -10.26364 -10.23936
 Alpha  occ. eigenvalues --  -10.23602 -10.21931 -10.21639 -10.21060 -10.20869
 Alpha  occ. eigenvalues --  -10.20776 -10.20584 -10.20303 -10.20177 -10.19332
 Alpha  occ. eigenvalues --   -1.04925  -0.96520  -0.91629  -0.88603  -0.82602
 Alpha  occ. eigenvalues --   -0.78278  -0.76914  -0.73346  -0.69412  -0.67570
 Alpha  occ. eigenvalues --   -0.62893  -0.61344  -0.58544  -0.55635  -0.52500
 Alpha  occ. eigenvalues --   -0.51745  -0.49059  -0.48478  -0.46715  -0.46426
 Alpha  occ. eigenvalues --   -0.46127  -0.45193  -0.44028  -0.42668  -0.41658
 Alpha  occ. eigenvalues --   -0.40842  -0.40415  -0.39716  -0.39062  -0.38303
 Alpha  occ. eigenvalues --   -0.37895  -0.36658  -0.36074  -0.35338  -0.34630
 Alpha  occ. eigenvalues --   -0.28988  -0.28234  -0.25953  -0.24317
 Alpha virt. eigenvalues --   -0.05740  -0.04247  -0.02416   0.01686   0.02823
 Alpha virt. eigenvalues --    0.03054   0.03377   0.04972   0.05297   0.06127
 Alpha virt. eigenvalues --    0.06966   0.07252   0.08164   0.08606   0.09445

 Mulliken charges:
               1
     1  C   -0.002529
     2  C   -0.243057
     3  C    0.231406
     4  C   -0.165600
     5  C   -0.197991
     6  C    0.231599
     7  H    0.122291
     8  H    0.131900
     9  H    0.114905
    10  N   -0.187016
    11  C   -0.278545
    12  H    0.106166
    13  H    0.139874
    14  H    0.146273
    15  C   -0.265268
    16  H    0.128763
    17  H    0.128411
    18  H    0.110450
    19  C   -0.217497
    20  H    0.103986
    21  H    0.114726
    22  C   -0.093092
    23  H    0.109373
    24  H    0.104791
    25  C    0.099574
    26  H    0.040753
    27  O   -0.285641
    28  C   -0.266933
    29  N    0.037930
 Sum of Mulliken charges =   0.00000

 Dipole moment (field-independent basis, Debye):
    X=              3.5804    Y=              1.3919    Z=              2.7614  Tot=              4.7309
 Quadrupole moment (field-independent basis, Debye-Ang):
   XX=           -127.0996   YY=            -80.0203   ZZ=            -92.3065
   XY=             -2.9432   XZ=              7.6237   YZ=             -4.6769

 Summary of Natural Population Analysis:

                                     Natural Population
             Natural    ---------------------------------------------
  Atom No    Charge        Core      Valence    Rydberg      Total
 --------------------------------------------------------------------
    C  1   -0.02490      1.99999     4.00589    0.01902     6.02490
    C  2   -0.16368      1.99999     4.14716    0.01653     6.16368
    C  3   -0.13301      1.99999     4.11433    0.01869     6.13301
    C  4   -0.16645      1.99999     4.14973    0.01673     6.16645
    C  5   -0.22800      1.99999     4.21125    0.01677     6.22800
    C  6    0.16847      1.99999     3.81087    0.02068     5.83153
    H  7    0.22104      0.00000     0.77740    0.00156     0.77896
    H  8    0.22671      0.00000     0.77199    0.00130     0.77329
    H  9    0.21945      0.00000     0.77856    0.00199     0.78055
    N 10   -0.43040      1.99999     5.40453    0.02587     7.43040
    C 11   -0.40450      1.99999     4.39126    0.01325     6.40450
    H 12    0.16612      0.00000     0.83048    0.00340     0.83388
    H 13    0.21266      0.00000     0.78541    0.00192     0.78734
    H 14    0.21567      0.00000     0.78279    0.00153     0.78433
    C 15   -0.39410      1.99999     4.38174    0.01237     6.39410
    H 16    0.20042      0.00000     0.79808    0.00149     0.79958
    H 17    0.19850      0.00000     0.79953    0.00196     0.80150
    H 18    0.17420      0.00000     0.82201    0.00379     0.82580
    C 19   -0.39856      1.99999     4.38572    0.01286     6.39856
    H 20    0.20837      0.00000     0.78893    0.00271     0.79163
    H 21    0.21490      0.00000     0.78349    0.00161     0.78510
    C 22   -0.49001      1.99999     4.47678    0.01324     6.49001
    H 23    0.22963      0.00000     0.76876    0.00161     0.77037
    H 24    0.22321      0.00000     0.77422    0.00256     0.77679
    C 25    0.44961      1.99999     3.51664    0.03376     5.55039
    H 26    0.09203      0.00000     0.90309    0.00488     0.90797
    O 27   -0.54285      1.99999     6.51715    0.02571     8.54285
    C 28    0.27677      1.99998     3.68959    0.03366     5.72323
    N 29   -0.32130      1.99999     5.29465    0.02666     7.32130
 ====================================================================
 * Total *  0.00000     29.99983    77.66206    0.33811   108.00000

 Normal termination of Gaussian 09 at Thu Oct 28 14:38:06 2021.
