 Gaussian 09, Revision D.01,
 Gaussian 09:  AM64L-G09RevD.01 24-Apr-2013

 ----------------------------------------------------------------------
 # b3lyp/def2tzvp empiricaldispersion=gd3 pop=nbo6read pop=saveNBOs int
 =(grid=ultrafine) scf=(tight,maxcycle=300)
 ----------------------------------------------------------------------

 ---------------------------------------------
 Energy Optimisation and Frequency calculation
 ---------------------------------------------
 Symbolic Z-matrix:
 Charge =  0 Multiplicity = 1

                         Standard orientation:
 ---------------------------------------------------------------------
 Center     Atomic      Atomic             Coordinates (Angstroms)
 Number     Number       Type             X           Y           Z
 ---------------------------------------------------------------------
      1          6           0       -0.316938   -0.639886    0.252346
      2          6           0       -1.672371   -0.966267    0.244090
      3          6           0       -2.657287   -0.014282    0.007486
      4          6           0       -2.288062    1.300487   -0.236439
      5          6           0       -0.944471    1.654242   -0.216630
      6          6           0        0.046711    0.704232    0.038136
      7          1           0       -1.959836   -1.998982    0.404690
      8          1           0       -3.040082    2.054448   -0.432691
      9          1           0       -0.666630    2.684797   -0.390638
     10          7           0        1.427786    1.054852    0.071803
     11          6           0        1.845852    2.156086   -0.780712
     12          1           0        1.547968    3.143790   -0.398409
     13          1           0        2.935029    2.146627   -0.852417
     14          1           0        1.430963    2.031405   -1.780584
     15          6           0        1.986468    1.173442    1.418355
     16          1           0        1.685652    2.118651    1.892655
     17          1           0        3.074213    1.124149    1.368057
     18          1           0        1.644389    0.354291    2.045175
     19          6           0        0.709923   -1.737447    0.398429
     20          1           0        0.179236   -2.682111    0.520744
     21          1           0        1.324483   -1.614539    1.292866
     22          6           0        1.664554   -1.847111   -0.812095
     23          1           0        2.004120   -2.884096   -0.904124
     24          1           0        1.145240   -1.589071   -1.736653
     25          6           0        2.920812   -1.016187   -0.668475
     26          1           0        3.182907   -0.373833   -1.531740
     27          8           0        3.665231   -1.105086    0.279524
     28          6           0       -4.141511   -0.424839   -0.003496
     29          7           0       -5.246584   -0.730518   -0.011673
 ---------------------------------------------------------------------

 SCF Done:  E(RB3LYP) =  -650.669342049     A.U. after   15 cycles

 The electronic state is 1-A.
 Alpha  occ. eigenvalues --  -19.12283 -14.35031 -14.31694 -10.26453 -10.23774
 Alpha  occ. eigenvalues --  -10.23675 -10.21848 -10.21495 -10.20945 -10.20786
 Alpha  occ. eigenvalues --  -10.20771 -10.20626 -10.20116 -10.19753 -10.19239
 Alpha  occ. eigenvalues --   -1.05118  -0.96643  -0.91544  -0.88497  -0.82218
 Alpha  occ. eigenvalues --   -0.78203  -0.76681  -0.73398  -0.69586  -0.67469
 Alpha  occ. eigenvalues --   -0.63009  -0.61403  -0.57690  -0.54985  -0.52636
 Alpha  occ. eigenvalues --   -0.51887  -0.49987  -0.48525  -0.47612  -0.46039
 Alpha  occ. eigenvalues --   -0.45720  -0.44676  -0.44356  -0.42152  -0.41613
 Alpha  occ. eigenvalues --   -0.41037  -0.40110  -0.39632  -0.39299  -0.37984
 Alpha  occ. eigenvalues --   -0.37464  -0.36643  -0.35963  -0.35197  -0.34530
 Alpha  occ. eigenvalues --   -0.29251  -0.28101  -0.26235  -0.24280
 Alpha virt. eigenvalues --   -0.05582  -0.04275  -0.02904   0.01623   0.02898
 Alpha virt. eigenvalues --    0.03216   0.03846   0.04633   0.05560   0.06551
 Alpha virt. eigenvalues --    0.06879   0.07608   0.08233   0.08972   0.09499

 Mulliken charges:
               1
     1  C   -0.010076
     2  C   -0.257429
     3  C    0.232451
     4  C   -0.173898
     5  C   -0.196610
     6  C    0.202609
     7  H    0.122958
     8  H    0.130997
     9  H    0.115624
    10  N   -0.161419
    11  C   -0.310696
    12  H    0.111047
    13  H    0.142840
    14  H    0.138790
    15  C   -0.261047
    16  H    0.109007
    17  H    0.150242
    18  H    0.130288
    19  C   -0.172220
    20  H    0.110626
    21  H    0.118793
    22  C   -0.104324
    23  H    0.113276
    24  H    0.094749
    25  C    0.092284
    26  H    0.060062
    27  O   -0.298843
    28  C   -0.267401
    29  N    0.037318
 Sum of Mulliken charges =   0.00000

 Dipole moment (field-independent basis, Debye):
    X=              3.3317    Y=              2.1678    Z=             -1.2066  Tot=              4.1540
 Quadrupole moment (field-independent basis, Debye-Ang):
   XX=           -131.3262   YY=            -81.1468   ZZ=            -88.5050
   XY=             -1.3614   XZ=             -4.0267   YZ=              0.2309

 Summary of Natural Population Analysis:

                                     Natural Population
             Natural    ---------------------------------------------
  Atom No    Charge        Core      Valence    Rydberg      Total
 --------------------------------------------------------------------
    C  1   -0.02481      1.99999     4.00602    0.01881     6.02481
    C  2   -0.16283      1.99999     4.14604    0.01680     6.16283
    C  3   -0.13642      1.99999     4.11747    0.01896     6.13642
    C  4   -0.16693      1.99999     4.14993    0.01702     6.16693
    C  5   -0.23514      1.99999     4.21800    0.01715     6.23514
    C  6    0.16641      1.99999     3.81286    0.02074     5.83359
    H  7    0.22124      0.00000     0.77720    0.00157     0.77876
    H  8    0.22656      0.00000     0.77214    0.00130     0.77344
    H  9    0.21818      0.00000     0.77983    0.00199     0.78182
    N 10   -0.42282      1.99999     5.39679    0.02603     7.42282
    C 11   -0.40380      1.99999     4.39109    0.01272     6.40380
    H 12    0.17035      0.00000     0.82602    0.00362     0.82965
    H 13    0.20629      0.00000     0.79190    0.00181     0.79371
    H 14    0.20469      0.00000     0.79378    0.00153     0.79531
    C 15   -0.39847      1.99999     4.38551    0.01297     6.39847
    H 16    0.17303      0.00000     0.82358    0.00339     0.82697
    H 17    0.21582      0.00000     0.78219    0.00200     0.78418
    H 18    0.20606      0.00000     0.79249    0.00145     0.79394
    C 19   -0.39986      1.99999     4.38665    0.01323     6.39986
    H 20    0.21342      0.00000     0.78496    0.00162     0.78658
    H 21    0.22679      0.00000     0.77037    0.00284     0.77321
    C 22   -0.48981      1.99999     4.47680    0.01302     6.48981
    H 23    0.23370      0.00000     0.76464    0.00166     0.76630
    H 24    0.20793      0.00000     0.79013    0.00193     0.79207
    C 25    0.44815      1.99999     3.51842    0.03343     5.55185
    H 26    0.10402      0.00000     0.89140    0.00458     0.89598
    O 27   -0.55629      1.99999     6.53074    0.02555     8.55629
    C 28    0.27737      1.99998     3.68901    0.03363     5.72263
    N 29   -0.32283      1.99999     5.29616    0.02667     7.32283
 ====================================================================
 * Total *  0.00000     29.99983    77.66213    0.33804   108.00000

 Normal termination of Gaussian 09 at Thu Oct 28 14:44:16 2021.
